
        13 atoms

  1 atom types

 -20.000000  20.000000  xlo xhi
 -20.000000  20.000000  ylo yhi
 -20.000000  20.000000  zlo zhi

 Masses

           1   58.6934

 Atoms

